LAMMPS (9 Jan 2009)
log             log.equil
